{
  "XRD Intensity": "Structural properties",
  "SMILES": "Structural properties",
  "InChI": "Structural properties",
  "Energy of highest occupied molecular orbital (εHOMO)": "Electronic properties",
  "Energy of lowest unoccupied molecular orbital (εLUMO)": "Electronic properties",
  "εgap (εLUMO-εHOMO)": "Electronic properties",
  "Unit cell volume": "Structural properties",
  "Space group": "Structural properties",
  "Lattice parameter (a)": "Structural properties",
  "Lattice parameter (c)": "Structural properties",
  "Lattice parameter (b)": "Structural properties",
  "Cell angle (γ)": "Structural properties",
  "Cell angle (β)": "Structural properties",
  "Cell angle (α)": "Structural properties",
  "Space group number": "Structural properties",
  "Crystal system": "Structural properties",
  "Volume": "Structural properties",
  "Space Group": "Structural properties",
  "Band Gap": "Electronic properties",
  "Total Magnetization": "Magnetic properties",
  "electronic spatial extent": "Electronic properties",
  "energy gap": "Electronic properties",
  "energy of HOMO": "Electronic properties",
  "energy of LUMO": "Electronic properties",
  "heat capacity": "Thermal properties",
  "zero point vibrational energy": "Thermal properties",
  "HOMO energy": "Electronic properties",
  "LUMO energy": "Electronic properties",
  "Point group symmetry": "Structural properties",
  "Specific heat capacity": "Thermal properties",
  "Crystal System": "Structural properties",
  "Point Group": "Structural properties",
  "CIF File": "Structural properties",
  "Space Group Number": "Structural properties",
  "Unit Cell Volume": "Structural properties",
  "Prototype": "Structural properties",
  "Bravais Lattice": "Structural properties",
  "Band gap": "Electronic properties",
  "Melting Point": "Thermal properties",
  "Thermal Conductivity": "Thermal properties",
  "Elongation": "Mechanical properties",
  "Poisson’s Ratio": "Mechanical properties",
  "Specific Heat": "Thermal properties",
  "Bulk Modulus, Reuss": "Mechanical properties",
  "Bulk Modulus, Voigt": "Mechanical properties",
  "Bulk Modulus, Voigt-Reuss-Hill": "Mechanical properties",
  "Compliance Tensor": "Mechanical properties",
  "Elastic Anisotropy": "Mechanical properties",
  "Shear Modulus, Reuss": "Mechanical properties",
  "Shear Modulus, Voigt": "Mechanical properties",
  "Shear Modulus, Voigt-Reuss-Hill": "Mechanical properties",
  "Stiffness Tensor": "Mechanical properties",
  "Flexural Strength": "Mechanical properties",
  "Elastic Modulus": "Mechanical properties",
  "Crystal structure": "Structural properties",
  "Magnetic Susceptibility": "Magnetic properties",
  "Refractive Index": "Optical properties",
  "Fracture Toughness": "Mechanical properties",
  "Ultimate tensile strength": "Mechanical properties",
  "Yield strength": "Mechanical properties",
  "Bulk modulus (B)": "Mechanical properties",
  "Hardness": "Mechanical properties",
  "Boiling Point": "Thermal properties",
  "0.2% Proof stress": "Mechanical properties",
  "Creep rupture lifetime": "Mechanical properties",
  "Rupture stress": "Mechanical properties",
  "Tensile strength": "Mechanical properties",
  "Crack growth": "Mechanical properties",
  "Crack growth distance per fatigue cycle (da/dN)": "Mechanical properties",
  "Band gap energy (EgDFT+U)": "Electronic properties",
  "Magnetic configuration": "Magnetic properties",
  "Shear Modulus": "Mechanical properties",
  "Tensile Strength": "Mechanical properties",
  "Melting point": "Thermal properties",
  "Bravais lattice type": "Structural properties",
  "Creep Rate": "Mechanical properties",
  "Refractive index (n)": "Optical properties",
  "Yield Strength": "Mechanical properties",
  "Density of states": "Electronic properties",
  "Density of states (d)": "Electronic properties",
  "Density of states (p)": "Electronic properties",
  "Density of states (s)": "Electronic properties",
  "Lattice parameter (α)": "Structural properties",
  "Lattice parameter (β)": "Structural properties",
  "Lattice parameter (γ)": "Structural properties",
  "Cell Parameter (c)": "Structural properties",
  "Bulk modulus VRH average, KVRH": "Mechanical properties",
  "Bulk modulus, Reuss KR": "Mechanical properties",
  "Bulk modulus, Voigt KV": "Mechanical properties",
  "Compliance tensor, sij": "Mechanical properties",
  "Elastic tensor, Cij": "Mechanical properties",
  "Isotropic Poisson ratio, μ": "Mechanical properties",
  "Shear modulus VRH average, GVRH": "Mechanical properties",
  "Shear modulus, Reuss GR": "Mechanical properties",
  "Shear modulus, Voigt GV": "Mechanical properties",
  "Universal elastic anisotropy, AU": "Mechanical properties",
  "Lattice Constant": "Structural properties",
  "Magnetic Moment": "Magnetic properties",
  "Saturation Magnetization": "Magnetic properties",
  "Point group in Hermann-Mauguin notation": "Structural properties",
  "Polycrystalline dielectric constant estimate (electronic contribution) ε∞poly": "Electronic properties",
  "Polycrystalline dielectric constant estimate (total)εpoly": "Electronic properties",
  "Specific Heat Capacity": "Thermal properties",
  "Elastic (Young’s, Tensile) Modulus": "Mechanical properties",
  "Tensile Strength: Ultimate (UTS)": "Mechanical properties",
  "Thermal conductivity, λ": "Thermal properties",
  "Temperature coefficient of refractive index (C’)": "Optical properties",
  "Temperature coefficient of refractive index (D)": "Optical properties",
  "Temperature coefficient of refractive index (F’)": "Optical properties",
  "Temperature coefficient of refractive index (e)": "Optical properties",
  "Temperature coefficient of refractive index (g)": "Optical properties",
  "Mohs scale hardness": "Mechanical properties",
  "Point group": "Structural properties",
  "Temperature coefficient of refractive index (t)": "Optical properties",
  "Ultimate Tensile Strength": "Structural properties",
  "Elongation at Break": "Mechanical properties",
  "Poissons Ratio": "Mechanical properties",
  "Bulk modulus": "Mechanical properties",
  "Stress Rupture Stress": "Mechanical properties",
  "Stress Rupture Time": "Mechanical properties",
  "Yield strength, YS": "Mechanical properties",
  "Specific heat (Cp)": "Thermal properties",
  "Thermal conductivity (k)": "Thermal properties",
  "Tensile Strength: Yield (Proof)": "Mechanical properties",
  "Ultimate tensile strength, UTS": "Mechanical properties",
  "Dielectric function (ε1)": "Electronic properties",
  "Dielectric function (ε2)": "Electronic properties",
  "Yield stength (0.2% offset)": "Mechanical properties",
  "Unit cell (a)": "Structural properties",
  "Bulk Modulus": "Mechanical properties",
  "Unit cell (Z)": "Structural properties",
  "Flexural strength": "Structural properties",
  "Unit cell (c)": "Structural properties",
  "Fracture": "Mechanical properties",
  "Tensile modulus": "Mechanical properties",
  "Work function": "Electronic properties",
  "Direct band gap": "Electronic properties",
  "Flexural modulus": "Mechanical properties",
  "Melting point (Tm)": "Thermal properties",
  "Tensile elongation": "Mechanical properties",
  "Elongation At Break": "Mechanical properties",
  "Tensile Modulus": "Mechanical properties",
  "Fatigue Strength": "Mechanical properties",
  "Unit cell (b)": "Structural properties",
  "Refractive index (nα)": "Optical properties",
  "Coefficient of thermal expansion": "Thermal properties",
  "Refractive index (nγ)": "Optical properties",
  "Yield Strength (0.2% offset)": "Mechanical properties",
  "Flexural Modulus": "Mechanical properties",
  "Elasticity tensor": "Mechanical properties",
  "Refractive index (nβ)": "Optical properties",
  "Yield strength (0.2% offset)": "Mechanical properties",
  "Shear strength": "Mechanical properties"
}